# vtk DataFile Version 3.0
PAMPI cfd solver output
ASCII
DATASET STRUCTURED_POINTS
DIMENSIONS 40 40 40
ORIGIN 0.375000 0.050000 0.050000
SPACING 0.750000 0.100000 0.100000
POINT_DATA 64000
SCALARS pressure float 1
LOOKUP_TABLE default
-42.725770
-42.757422
-42.780074
-42.798777
-42.815659
-42.831482
-42.846560
-42.861052
-42.875059
-42.888655
-42.901897
-42.914832
-42.927496
-42.939920
-42.952129
-42.964145
-42.975985
-42.987667
-42.999202
-43.010603
-43.021881
-43.033043
-43.044100
-43.055057
-43.065921
-43.076699
-43.087396
-43.098016
-43.108564
-43.119044
-43.129460
-43.139816
-43.150115
-43.160361
-43.170556
-43.180706
-43.190813
-43.200885
-43.210934
-43.220987
-42.725420
-42.757636
-42.780043
-42.798674
-42.815556
-42.831394
-42.846488
-42.860992
-42.875009
-42.888613
-42.901862
-42.914802
-42.927470
-42.939897
-42.952109
-42.964127
-42.975970
-42.987653
-42.999190
-43.010592
-43.021871
-43.033034
-43.044092
-43.055049
-43.065915
-43.076693
-43.087390
-43.098011
-43.108559
-43.119040
-43.129456
-43.139813
-43.150112
-43.160358
-43.170554
-43.180703
-43.190810
-43.200883
-43.210932
-43.220986
-42.724664
-42.758378
-42.780406
-42.798782
-42.815562
-42.831365
-42.846448
-42.860951
-42.874971
-42.888578
-42.901831
-42.914773
-42.927444
-42.939874
-42.952088
-42.964109
-42.975953
-42.987638
-42.999176
-43.010580
-43.021859
-43.033024
-43.044082
-43.055041
-43.065907
-43.076686
-43.087384
-43.098005
-43.108554
-43.119035
-43.129452
-43.139808
-43.150108
-43.160354
-43.170550
-43.180700
-43.190808
-43.200880
-43.210930
-43.220983
-42.723731
-42.759533
-42.781162
-42.799156
-42.815739
-42.831448
-42.846485
-42.860966
-42.874974
-42.888575
-42.901824
-42.914765
-42.927436
-42.939865
-42.952079
-42.964100
-42.975945
-42.987630
-42.999169
-43.010573
-43.021853
-43.033018
-43.044077
-43.055036
-43.065902
-43.076682
-43.087379
-43.098001
-43.108550
-43.119031
-43.129449
-43.139806
-43.150105
-43.160352
-43.170548
-43.180698
-43.190805
-43.200878
-43.210926
-43.220979
-42.722754
-42.760976
-42.782242
-42.799772
-42.816090
-42.831657
-42.846616
-42.861052
-42.875033
-42.888617
-42.901854
-42.914787
-42.927452
-42.939877
-42.952089
-42.964107
-42.975950
-42.987634
-42.999172
-43.010575
-43.021855
-43.033019
-43.044078
-43.055036
-43.065903
-43.076682
-43.087380
-43.098001
-43.108550
-43.119031
-43.129449
-43.139805
-43.150105
-43.160352
-43.170548
-43.180697
-43.190805
-43.200876
-43.210924
-43.220970
-42.721809
-42.762607
-42.783569
-42.800573
-42.816583
-42.831977
-42.846834
-42.861208
-42.875148
-42.888705
-42.901923
-42.914842
-42.927496
-42.939914
-42.952119
-42.964132
-42.975971
-42.987652
-42.999187
-43.010588
-43.021866
-43.033029
-43.044086
-43.055044
-43.065909
-43.076688
-43.087385
-43.098005
-43.108554
-43.119035
-43.129452
-43.139809
-43.150108
-43.160354
-43.170550
-43.180699
-43.190806
-43.200877
-43.210920
-43.220962
-42.720936
-42.764349
-42.785069
-42.801510
-42.817179
-42.832380
-42.847122
-42.861422
-42.875313
-42.888835
-42.902028
-42.914928
-42.927568
-42.939974
-42.952169
-42.964175
-42.976009
-42.987684
-42.999215
-43.010613
-43.021888
-43.033048
-43.044103
-43.055059
-43.065923
-43.076700
-43.087396
-43.098015
-43.108563
-43.119043
-43.129459
-43.139815
-43.150114
-43.160359
-43.170555
-43.180703
-43.190810
-43.200877
-43.210918
-43.220948
-42.720153
-42.766146
-42.786682
-42.802540
-42.817843
-42.832838
-42.847457
-42.861678
-42.875514
-42.888997
-42.902161
-42.915039
-42.927662
-42.940054
-42.952238
-42.964235
-42.976060
-42.987729
-42.999255
-43.010648
-43.021919
-43.033076
-43.044128
-43.055081
-43.065942
-43.076717
-43.087412
-43.098030
-43.108576
-43.119055
-43.129470
-43.139825
-43.150123
-43.160368
-43.170562
-43.180710
-43.190815
-43.200881
-43.210916
-43.220934
-42.719465
-42.767948
-42.788357
-42.803621
-42.818545
-42.833327
-42.847819
-42.861959
-42.875740
-42.889182
-42.902316
-42.915170
-42.927773
-42.940149
-42.952321
-42.964307
-42.976124
-42.987785
-42.999304
-43.010692
-43.021958
-43.033111
-43.044159
-43.055109
-43.065968
-43.076740
-43.087432
-43.098048
-43.108593
-43.119070
-43.129484
-43.139837
-43.150135
-43.160378
-43.170572
-43.180718
-43.190822
-43.200885
-43.210914
-43.220915
-42.718872
-42.769715
-42.790052
-42.804724
-42.819260
-42.833827
-42.848192
-42.862252
-42.875977
-42.889379
-42.902481
-42.915311
-42.927895
-42.940255
-42.952413
-42.964388
-42.976195
-42.987849
-42.999361
-43.010742
-43.022003
-43.033151
-43.044196
-43.055142
-43.065997
-43.076767
-43.087457
-43.098071
-43.108613
-43.119089
-43.129501
-43.139853
-43.150148
-43.160391
-43.170583
-43.180729
-43.190830
-43.200891
-43.210913
-43.220895
-42.718367
-42.771411
-42.791729
-42.805820
-42.819968
-42.834320
-42.848562
-42.862543
-42.876215
-42.889578
-42.902651
-42.915457
-42.928021
-42.940366
-42.952511
-42.964474
-42.976272
-42.987917
-42.999422
-43.010797
-43.022052
-43.033196
-43.044236
-43.055178
-43.066030
-43.076797
-43.087484
-43.098095
-43.108636
-43.119109
-43.129519
-43.139870
-43.150164
-43.160405
-43.170596
-43.180740
-43.190840
-43.200897
-43.210911
-43.220872
-42.717941
-42.773008
-42.793352
-42.806886
-42.820653
-42.834796
-42.848918
-42.862824
-42.876445
-42.889772
-42.902817
-42.915601
-42.928147
-42.940476
-42.952609
-42.964562
-42.976350
-42.987987
-42.999484
-43.010853
-43.022103
-43.033242
-43.044277
-43.055216
-43.066065
-43.076829
-43.087512
-43.098121
-43.108660
-43.119131
-43.129539
-43.139888
-43.150181
-43.160421
-43.170610
-43.180753
-43.190851
-43.200904
-43.210910
-43.220846
-42.717587
-42.774480
-42.794887
-42.807899
-42.821301
-42.835243
-42.849251
-42.863087
-42.876662
-42.889955
-42.902974
-42.915738
-42.928267
-42.940583
-42.952704
-42.964646
-42.976426
-42.988055
-42.999546
-43.010909
-43.022154
-43.033288
-43.044319
-43.055255
-43.066100
-43.076860
-43.087541
-43.098148
-43.108684
-43.119153
-43.129560
-43.139907
-43.150198
-43.160436
-43.170625
-43.180766
-43.190862
-43.200911
-43.210909
-43.220821
-42.717295
-42.775806
-42.796302
-42.808839
-42.821899
-42.835653
-42.849555
-42.863327
-42.876859
-42.890121
-42.903118
-42.915863
-42.928378
-42.940682
-42.952792
-42.964726
-42.976497
-42.988120
-42.999605
-43.010962
-43.022202
-43.033332
-43.044359
-43.055291
-43.066133
-43.076891
-43.087570
-43.098174
-43.108708
-43.119175
-43.129580
-43.139925
-43.150215
-43.160452
-43.170639
-43.180778
-43.190872
-43.200919
-43.210909
-43.220795
-42.717059
-42.776969
-42.797569
-42.809684
-42.822435
-42.836018
-42.849825
-42.863539
-42.877033
-42.890269
-42.903245
-42.915975
-42.928477
-42.940770
-42.952871
-42.964797
-42.976562
-42.988178
-42.999658
-43.011011
-43.022246
-43.033372
-43.044396
-43.055325
-43.066164
-43.076920
-43.087596
-43.098198
-43.108730
-43.119195
-43.129599
-43.139942
-43.150231
-43.160466
-43.170652
-43.180790
-43.190882
-43.200926
-43.210908
-43.220770
-42.716871
-42.777957
-42.798663
-42.810418
-42.822898
-42.836333
-42.850057
-42.863721
-42.877182
-42.890395
-42.903354
-42.916071
-42.928562
-42.940846
-42.952939
-42.964859
-42.976618
-42.988229
-42.999704
-43.011053
-43.022285
-43.033408
-43.044429
-43.055355
-43.066192
-43.076945
-43.087619
-43.098219
-43.108749
-43.119214
-43.129615
-43.139958
-43.150245
-43.160479
-43.170664
-43.180801
-43.190891
-43.200932
-43.210908
-43.220748
-42.716728
-42.778758
-42.799563
-42.811025
-42.823281
-42.836591
-42.850246
-42.863869
-42.877303
-42.890498
-42.903443
-42.916149
-42.928631
-42.940908
-42.952995
-42.964909
-42.976664
-42.988271
-42.999743
-43.011088
-43.022317
-43.033438
-43.044456
-43.055380
-43.066215
-43.076966
-43.087639
-43.098237
-43.108766
-43.119229
-43.129629
-43.139971
-43.150257
-43.160490
-43.170674
-43.180810
-43.190899
-43.200937
-43.210907
-43.220729
-42.716625
-42.779365
-42.800254
-42.811492
-42.823574
-42.836788
-42.850390
-42.863981
-42.877395
-42.890575
-42.903510
-42.916208
-42.928684
-42.940955
-42.953038
-42.964948
-42.976699
-42.988303
-42.999772
-43.011115
-43.022342
-43.033460
-43.044477
-43.055399
-43.066233
-43.076982
-43.087654
-43.098251
-43.108779
-43.119241
-43.129640
-43.139981
-43.150266
-43.160499
-43.170682
-43.180818
-43.190905
-43.200942
-43.210907
-43.220714
-42.716559
-42.779773
-42.800721
-42.811808
-42.823773
-42.836921
-42.850487
-42.864056
-42.877457
-42.890627
-42.903555
-42.916247
-42.928719
-42.940987
-42.953066
-42.964974
-42.976722
-42.988325
-42.999792
-43.011133
-43.022359
-43.033476
-43.044491
-43.055412
-43.066245
-43.076994
-43.087664
-43.098261
-43.108788
-43.119249
-43.129648
-43.139988
-43.150273
-43.160505
-43.170688
-43.180822
-43.190910
-43.200944
-43.210907
-43.220704
-42.716527
-42.779978
-42.800957
-42.811968
-42.823873
-42.836988
-42.850536
-42.864094
-42.877488
-42.890653
-42.903578
-42.916267
-42.928737
-42.941002
-42.953081
-42.964987
-42.976734
-42.988335
-42.999802
-43.011143
-43.022367
-43.033483
-43.044499
-43.055419
-43.066251
-43.076999
-43.087669
-43.098266
-43.108792
-43.119253
-43.129652
-43.139992
-43.150276
-43.160508
-43.170690
-43.180825
-43.190912
-43.200946
-43.210907
-43.220699
-42.716527
-42.779978
-42.800957
-42.811968
-42.823873
-42.836988
-42.850536
-42.864094
-42.877488
-42.890653
-42.903578
-42.916267
-42.928737
-42.941002
-42.953081
-42.964987
-42.976734
-42.988335
-42.999802
-43.011143
-43.022367
-43.033483
-43.044499
-43.055419
-43.066251
-43.076999
-43.087669
-43.098266
-43.108792
-43.119253
-43.129652
-43.139992
-43.150276
-43.160508
-43.170691
-43.180825
-43.190912
-43.200946
-43.210907
-43.220698
-42.716559
-42.779773
-42.800721
-42.811808
-42.823773
-42.836921
-42.850487
-42.864056
-42.877457
-42.890627
-42.903555
-42.916247
-42.928719
-42.940987
-42.953066
-42.964974
-42.976722
-42.988325
-42.999792
-43.011133
-43.022359
-43.033476
-43.044491
-43.055412
-43.066245
-43.076994
-43.087664
-43.098261
-43.108788
-43.119249
-43.129648
-43.139988
-43.150273
-43.160505
-43.170687
-43.180823
-43.190910
-43.200945
-43.210907
-43.220704
-42.716625
-42.779365
-42.800254
-42.811492
-42.823574
-42.836788
-42.850390
-42.863981
-42.877395
-42.890575
-42.903510
-42.916208
-42.928684
-42.940955
-42.953038
-42.964948
-42.976699
-42.988303
-42.999772
-43.011115
-43.022342
-43.033460
-43.044477
-43.055399
-43.066233
-43.076983
-43.087654
-43.098251
-43.108779
-43.119241
-43.129641
-43.139981
-43.150267
-43.160499
-43.170682
-43.180817
-43.190906
-43.200941
-43.210907
-43.220714
-42.716728
-42.778758
-42.799563
-42.811025
-42.823281
-42.836591
-42.850246
-42.863869
-42.877303
-42.890498
-42.903443
-42.916149
-42.928631
-42.940908
-42.952995
-42.964909
-42.976664
-42.988271
-42.999742
-43.011088
-43.022317
-43.033438
-43.044456
-43.055380
-43.066215
-43.076966
-43.087639
-43.098237
-43.108766
-43.119229
-43.129629
-43.139971
-43.150257
-43.160491
-43.170674
-43.180810
-43.190899
-43.200937
-43.210907
-43.220729
-42.716871
-42.777957
-42.798663
-42.810418
-42.822898
-42.836333
-42.850057
-42.863721
-42.877182
-42.890395
-42.903354
-42.916071
-42.928562
-42.940846
-42.952939
-42.964859
-42.976618
-42.988229
-42.999704
-43.011053
-43.022285
-43.033408
-43.044429
-43.055355
-43.066192
-43.076945
-43.087619
-43.098219
-43.108749
-43.119213
-43.129615
-43.139958
-43.150245
-43.160479
-43.170664
-43.180801
-43.190892
-43.200932
-43.210908
-43.220748
-42.717059
-42.776969
-42.797568
-42.809684
-42.822435
-42.836018
-42.849825
-42.863539
-42.877033
-42.890269
-42.903245
-42.915975
-42.928477
-42.940770
-42.952871
-42.964797
-42.976562
-42.988178
-42.999658
-43.011011
-43.022246
-43.033372
-43.044396
-43.055325
-43.066164
-43.076919
-43.087596
-43.098198
-43.108730
-43.119195
-43.129598
-43.139943
-43.150231
-43.160466
-43.170652
-43.180790
-43.190882
-43.200926
-43.210908
-43.220770
-42.717295
-42.775806
-42.796302
-42.808839
-42.821899
-42.835653
-42.849555
-42.863327
-42.876859
-42.890121
-42.903118
-42.915863
-42.928378
-42.940682
-42.952792
-42.964726
-42.976497
-42.988120
-42.999605
-43.010962
-43.022202
-43.033332
-43.044359
-43.055291
-43.066133
-43.076891
-43.087570
-43.098174
-43.108708
-43.119175
-43.129580
-43.139925
-43.150215
-43.160452
-43.170639
-43.180778
-43.190872
-43.200919
-43.210909
-43.220795
-42.717587
-42.774480
-42.794887
-42.807899
-42.821301
-42.835243
-42.849251
-42.863087
-42.876662
-42.889955
-42.902974
-42.915738
-42.928267
-42.940583
-42.952704
-42.964646
-42.976426
-42.988055
-42.999546
-43.010909
-43.022154
-43.033288
-43.044319
-43.055254
-43.066100
-43.076860
-43.087541
-43.098148
-43.108684
-43.119153
-43.129560
-43.139907
-43.150198
-43.160436
-43.170625
-43.180766
-43.190861
-43.200911
-43.210909
-43.220821
-42.717941
-42.773008
-42.793352
-42.806886
-42.820653
-42.834796
-42.848918
-42.862824
-42.876445
-42.889772
-42.902817
-42.915601
-42.928147
-42.940476
-42.952609
-42.964562
-42.976350
-42.987987
-42.999484
-43.010853
-43.022103
-43.033242
-43.044277
-43.055216
-43.066065
-43.076829
-43.087512
-43.098121
-43.108660
-43.119131
-43.129539
-43.139888
-43.150181
-43.160421
-43.170610
-43.180753
-43.190851
-43.200904
-43.210910
-43.220847
-42.718367
-42.771411
-42.791729
-42.805820
-42.819968
-42.834320
-42.848562
-42.862543
-42.876215
-42.889578
-42.902651
-42.915457
-42.928021
-42.940366
-42.952511
-42.964474
-42.976272
-42.987917
-42.999422
-43.010797
-43.022052
-43.033196
-43.044236
-43.055178
-43.066030
-43.076797
-43.087484
-43.098095
-43.108636
-43.119109
-43.129519
-43.139870
-43.150164
-43.160405
-43.170596
-43.180740
-43.190840
-43.200897
-43.210911
-43.220872
-42.718872
-42.769715
-42.790052
-42.804724
-42.819260
-42.833827
-42.848192
-42.862252
-42.875977
-42.889379
-42.902481
-42.915311
-42.927895
-42.940255
-42.952413
-42.964388
-42.976195
-42.987849
-42.999361
-43.010742
-43.022003
-43.033151
-43.044196
-43.055142
-43.065997
-43.076767
-43.087457
-43.098071
-43.108613
-43.119089
-43.129501
-43.139853
-43.150149
-43.160391
-43.170583
-43.180729
-43.190831
-43.200891
-43.210913
-43.220895
-42.719465
-42.767948
-42.788357
-42.803621
-42.818545
-42.833327
-42.847819
-42.861959
-42.875740
-42.889182
-42.902316
-42.915170
-42.927773
-42.940149
-42.952321
-42.964307
-42.976124
-42.987785
-42.999304
-43.010692
-43.021958
-43.033111
-43.044159
-43.055109
-43.065968
-43.076740
-43.087432
-43.098048
-43.108593
-43.119070
-43.129484
-43.139838
-43.150134
-43.160378
-43.170572
-43.180719
-43.190822
-43.200885
-43.210914
-43.220916
-42.720153
-42.766146
-42.786682
-42.802540
-42.817843
-42.832838
-42.847457
-42.861678
-42.875514
-42.888997
-42.902161
-42.915039
-42.927662
-42.940054
-42.952238
-42.964235
-42.976060
-42.987729
-42.999255
-43.010648
-43.021919
-43.033076
-43.044128
-43.055081
-43.065942
-43.076717
-43.087412
-43.098030
-43.108576
-43.119055
-43.129470
-43.139825
-43.150123
-43.160367
-43.170562
-43.180710
-43.190815
-43.200881
-43.210916
-43.220933
-42.720936
-42.764349
-42.785069
-42.801510
-42.817179
-42.832380
-42.847122
-42.861422
-42.875313
-42.888835
-42.902028
-42.914928
-42.927568
-42.939974
-42.952169
-42.964175
-42.976009
-42.987684
-42.999215
-43.010613
-43.021888
-43.033048
-43.044103
-43.055059
-43.065923
-43.076700
-43.087396
-43.098015
-43.108563
-43.119043
-43.129459
-43.139815
-43.150114
-43.160359
-43.170555
-43.180704
-43.190809
-43.200878
-43.210918
-43.220949
-42.721809
-42.762607
-42.783569
-42.800573
-42.816583
-42.831977
-42.846834
-42.861208
-42.875148
-42.888705
-42.901923
-42.914842
-42.927496
-42.939914
-42.952119
-42.964132
-42.975971
-42.987652
-42.999187
-43.010588
-43.021866
-43.033029
-43.044086
-43.055044
-43.065909
-43.076688
-43.087385
-43.098006
-43.108554
-43.119035
-43.129452
-43.139808
-43.150108
-43.160354
-43.170550
-43.180699
-43.190806
-43.200876
-43.210921
-43.220961
-42.722754
-42.760976
-42.782242
-42.799772
-42.816090
-42.831657
-42.846616
-42.861052
-42.875033
-42.888617
-42.901854
-42.914787
-42.927452
-42.939877
-42.952089
-42.964107
-42.975950
-42.987634
-42.999172
-43.010575
-43.021855
-43.033019
-43.044078
-43.055036
-43.065903
-43.076682
-43.087380
-43.098001
-43.108550
-43.119031
-43.129449
-43.139805
-43.150105
-43.160352
-43.170548
-43.180698
-43.190805
-43.200877
-43.210923
-43.220971
-42.723731
-42.759533
-42.781162
-42.799156
-42.815739
-42.831448
-42.846485
-42.860966
-42.874974
-42.888575
-42.901824
-42.914765
-42.927436
-42.939865
-42.952079
-42.964100
-42.975945
-42.987630
-42.999169
-43.010573
-43.021853
-43.033018
-43.044077
-43.055036
-43.065902
-43.076682
-43.087379
-43.098001
-43.108550
-43.119031
-43.129449
-43.139806
-43.150106
-43.160352
-43.170548
-43.180698
-43.190806
-43.200877
-43.210927
-43.220978
-42.724664
-42.758378
-42.780406
-42.798782
-42.815562
-42.831365
-42.846448
-42.860951
-42.874971
-42.888578
-42.901831
-42.914773
-42.927444
-42.939874
-42.952088
-42.964109
-42.975953
-42.987638
-42.999176
-43.010580
-43.021859
-43.033024
-43.044082
-43.055041
-43.065907
-43.076686
-43.087384
-43.098005
-43.108554
-43.119035
-43.129452
-43.139808
-43.150108
-43.160354
-43.170550
-43.180700
-43.190808
-43.200880
-43.210930
-43.220984
-42.725420
-42.757636
-42.780043
-42.798674
-42.815556
-42.831394
-42.846488
-42.860992
-42.875009
-42.888613
-42.901862
-42.914802
-42.927470
-42.939897
-42.952109
-42.964127
-42.975970
-42.987653
-42.999190
-43.010592
-43.021871
-43.033034
-43.044092
-43.055049
-43.065915
-43.076693
-43.087390
-43.098011
-43.108559
-43.119040
-43.129456
-43.139813
-43.150112
-43.160358
-43.170554
-43.180703
-43.190811
-43.200883
-43.210932
-43.220986
-42.725770
-42.757422
-42.780074
-42.798777
-42.815659
-42.831482
-42.846560
-42.861052
-42.875059
-42.888655
-42.901897
-42.914832
-42.927496
-42.939920
-42.952129
-42.964145
-42.975985
-42.987667
-42.999202
-43.010603
-43.021881
-43.033043
-43.044100
-43.055057
-43.065921
-43.076699
-43.087396
-43.098016
-43.108564
-43.119044
-43.129460
-43.139816
-43.150115
-43.160361
-43.170556
-43.180706
-43.190813
-43.200885
-43.210934
-43.220987
-42.726267
-42.757212
-42.780108
-42.798877
-42.815759
-42.831568
-42.846630
-42.861109
-42.875106
-42.888695
-42.901931
-42.914861
-42.927521
-42.939942
-42.952148
-42.964162
-42.976000
-42.987680
-42.999214
-43.010614
-43.021890
-43.033052
-43.044107
-43.055064
-43.065928
-43.076705
-43.087401
-43.098020
-43.108568
-43.119048
-43.129464
-43.139819
-43.150118
-43.160364
-43.170559
-43.180708
-43.190815
-43.200887
-43.210935
-43.220987
-42.726298
-42.757336
-42.780040
-42.798757
-42.815645
-42.831472
-42.846552
-42.861045
-42.875053
-42.888649
-42.901893
-42.914828
-42.927492
-42.939916
-42.952126
-42.964142
-42.975983
-42.987664
-42.999200
-43.010601
-43.021879
-43.033042
-43.044098
-43.055055
-43.065920
-43.076698
-43.087394
-43.098014
-43.108562
-43.119043
-43.129459
-43.139815
-43.150114
-43.160360
-43.170555
-43.180704
-43.190812
-43.200884
-43.210933
-43.220986
-42.726033
-42.757923
-42.780359
-42.798866
-42.815663
-42.831456
-42.846524
-42.861015
-42.875024
-42.888623
-42.901868
-42.914805
-42.927472
-42.939898
-42.952109
-42.964127
-42.975969
-42.987652
-42.999189
-43.010591
-43.021869
-43.033033
-43.044090
-43.055048
-43.065913
-43.076692
-43.087389
-43.098009
-43.108558
-43.119038
-43.129455
-43.139811
-43.150111
-43.160357
-43.170552
-43.180702
-43.190809
-43.200881
-43.210930
-43.220983
-42.725632
-42.758870
-42.781023
-42.799213
-42.815836
-42.831543
-42.846569
-42.861037
-42.875034
-42.888627
-42.901868
-42.914803
-42.927468
-42.939894
-42.952105
-42.964122
-42.975964
-42.987647
-42.999184
-43.010586
-43.021865
-43.033029
-43.044086
-43.055045
-43.065910
-43.076689
-43.087386
-43.098006
-43.108555
-43.119036
-43.129453
-43.139809
-43.150109
-43.160355
-43.170551
-43.180700
-43.190807
-43.200879
-43.210928
-43.220978
-42.725193
-42.760082
-42.781971
-42.799770
-42.816159
-42.831739
-42.846693
-42.861121
-42.875093
-42.888669
-42.901899
-42.914827
-42.927487
-42.939908
-42.952116
-42.964131
-42.975971
-42.987653
-42.999189
-43.010590
-43.021868
-43.033031
-43.044088
-43.055046
-43.065911
-43.076690
-43.087387
-43.098007
-43.108556
-43.119036
-43.129453
-43.139809
-43.150109
-43.160355
-43.170550
-43.180700
-43.190807
-43.200878
-43.210924
-43.220971
-42.724776
-42.761481
-42.783149
-42.800488
-42.816606
-42.832029
-42.846892
-42.861263
-42.875199
-42.888750
-42.901964
-42.914879
-42.927529
-42.939943
-42.952145
-42.964155
-42.975992
-42.987670
-42.999204
-43.010603
-43.021880
-43.033041
-43.044097
-43.055054
-43.065918
-43.076696
-43.087392
-43.098012
-43.108560
-43.119040
-43.129457
-43.139813
-43.150112
-43.160357
-43.170553
-43.180702
-43.190808
-43.200878
-43.210922
-43.220961
-42.724409
-42.763006
-42.784491
-42.801335
-42.817142
-42.832393
-42.847151
-42.861456
-42.875347
-42.888868
-42.902058
-42.914956
-42.927594
-42.939997
-42.952191
-42.964195
-42.976026
-42.987700
-42.999230
-43.010626
-43.021900
-43.033059
-43.044113
-43.055068
-43.065931
-43.076707
-43.087402
-43.098021
-43.108568
-43.119048
-43.129463
-43.139819
-43.150117
-43.160362
-43.170557
-43.180706
-43.190811
-43.200880
-43.210919
-43.220950
-42.724104
-42.764605
-42.785950
-42.802272
-42.817744
-42.832804
-42.847451
-42.861685
-42.875528
-42.889013
-42.902178
-42.915056
-42.927678
-42.940069
-42.952253
-42.964248
-42.976073
-42.987741
-42.999265
-43.010658
-43.021928
-43.033084
-43.044135
-43.055088
-43.065948
-43.076723
-43.087417
-43.098034
-43.108580
-43.119058
-43.129473
-43.139828
-43.150125
-43.160370
-43.170564
-43.180712
-43.190816
-43.200882
-43.210917
-43.220935
-42.723863
-42.766232
-42.787481
-42.803263
-42.818384
-42.833247
-42.847777
-42.861937
-42.875729
-42.889178
-42.902316
-42.915173
-42.927777
-42.940155
-42.952327
-42.964313
-42.976130
-42.987791
-42.999310
-43.010697
-43.021963
-43.033115
-43.044163
-43.055113
-43.065971
-43.076744
-43.087435
-43.098051
-43.108595
-43.119072
-43.129486
-43.139839
-43.150136
-43.160379
-43.170573
-43.180719
-43.190823
-43.200886
-43.210915
-43.220917
-42.723681
-42.767847
-42.789045
-42.804282
-42.819041
-42.833702
-42.848115
-42.862200
-42.875942
-42.889354
-42.902464
-42.915299
-42.927886
-42.940249
-42.952409
-42.964385
-42.976193
-42.987848
-42.999360
-43.010742
-43.022003
-43.033152
-43.044196
-43.055142
-43.065998
-43.076768
-43.087457
-43.098071
-43.108613
-43.119089
-43.129501
-43.139853
-43.150148
-43.160391
-43.170583
-43.180729
-43.190830
-43.200891
-43.210913
-43.220896
-42.723551
-42.769411
-42.790606
-42.805304
-42.819697
-42.834155
-42.848451
-42.862464
-42.876156
-42.889533
-42.902616
-42.915429
-42.927999
-42.940348
-42.952496
-42.964462
-42.976262
-42.987908
-42.999415
-43.010791
-43.022047
-43.033191
-43.044232
-43.055175
-43.066027
-43.076794
-43.087481
-43.098093
-43.108633
-43.119107
-43.129517
-43.139868
-43.150162
-43.160404
-43.170595
-43.180739
-43.190839
-43.200896
-43.210910
-43.220872
-42.723463
-42.770896
-42.792126
-42.806304
-42.820336
-42.834595
-42.848777
-42.862719
-42.876365
-42.889708
-42.902765
-42.915558
-42.928112
-42.940447
-42.952584
-42.964540
-42.976331
-42.987971
-42.999470
-43.010841
-43.022092
-43.033232
-43.044269
-43.055209
-43.066058
-43.076822
-43.087507
-43.098116
-43.108655
-43.119127
-43.129535
-43.139884
-43.150177
-43.160417
-43.170607
-43.180750
-43.190848
-43.200902
-43.210908
-43.220847
-42.723409
-42.772273
-42.793570
-42.807260
-42.820944
-42.835011
-42.849085
-42.862961
-42.876562
-42.889874
-42.902907
-42.915682
-42.928220
-42.940542
-42.952669
-42.964616
-42.976399
-42.988032
-42.999525
-43.010891
-43.022137
-43.033273
-43.044306
-43.055243
-43.066089
-43.076850
-43.087533
-43.098140
-43.108676
-43.119146
-43.129553
-43.139901
-43.150192
-43.160431
-43.170620
-43.180761
-43.190857
-43.200908
-43.210906
-43.220820
-42.723379
-42.773520
-42.794908
-42.808150
-42.821508
-42.835395
-42.849367
-42.863182
-42.876743
-42.890026
-42.903038
-42.915796
-42.928320
-42.940631
-42.952748
-42.964687
-42.976463
-42.988089
-42.999578
-43.010938
-43.022180
-43.033313
-43.044342
-43.055275
-43.066119
-43.076878
-43.087558
-43.098163
-43.108697
-43.119166
-43.129571
-43.139917
-43.150207
-43.160445
-43.170632
-43.180772
-43.190867
-43.200914
-43.210905
-43.220794
-42.723367
-42.774619
-42.796110
-42.808955
-42.822017
-42.835739
-42.849620
-42.863379
-42.876904
-42.890162
-42.903155
-42.915898
-42.928410
-42.940711
-42.952820
-42.964751
-42.976521
-42.988142
-42.999625
-43.010982
-43.022220
-43.033349
-43.044375
-43.055305
-43.066146
-43.076903
-43.087581
-43.098184
-43.108717
-43.119184
-43.129588
-43.139932
-43.150221
-43.160458
-43.170644
-43.180783
-43.190875
-43.200919
-43.210903
-43.220769
-42.723365
-42.775554
-42.797152
-42.809656
-42.822458
-42.836036
-42.849837
-42.863548
-42.877042
-42.890278
-42.903255
-42.915985
-42.928488
-42.940781
-42.952882
-42.964807
-42.976572
-42.988188
-42.999667
-43.011020
-43.022255
-43.033380
-43.044404
-43.055332
-43.066171
-43.076926
-43.087602
-43.098203
-43.108735
-43.119200
-43.129602
-43.139946
-43.150234
-43.160469
-43.170655
-43.180792
-43.190884
-43.200925
-43.210902
-43.220746
-42.723370
-42.776315
-42.798011
-42.810236
-42.822823
-42.836281
-42.850015
-42.863687
-42.877155
-42.890373
-42.903337
-42.916057
-42.928551
-42.940837
-42.952933
-42.964853
-42.976613
-42.988226
-42.999702
-43.011051
-43.022284
-43.033407
-43.044428
-43.055355
-43.066191
-43.076945
-43.087619
-43.098219
-43.108749
-43.119213
-43.129615
-43.139958
-43.150245
-43.160479
-43.170663
-43.180801
-43.190890
-43.200929
-43.210900
-43.220726
-42.723378
-42.776893
-42.798670
-42.810684
-42.823104
-42.836469
-42.850152
-42.863793
-42.877241
-42.890446
-42.903399
-42.916112
-42.928600
-42.940880
-42.952972
-42.964888
-42.976645
-42.988255
-42.999728
-43.011076
-43.022306
-43.033427
-43.044447
-43.055372
-43.066207
-43.076959
-43.087633
-43.098232
-43.108761
-43.119224
-43.129625
-43.139967
-43.150253
-43.160487
-43.170671
-43.180807
-43.190896
-43.200932
-43.210900
-43.220711
-42.723385
-42.777282
-42.799117
-42.810987
-42.823295
-42.836596
-42.850244
-42.863864
-42.877299
-42.890494
-42.903441
-42.916148
-42.928632
-42.940910
-42.952998
-42.964912
-42.976667
-42.988275
-42.999746
-43.011092
-43.022321
-43.033441
-43.044460
-43.055384
-43.066218
-43.076969
-43.087642
-43.098240
-43.108769
-43.119231
-43.129632
-43.139973
-43.150259
-43.160492
-43.170675
-43.180811
-43.190899
-43.200935
-43.210899
-43.220701
-42.723391
-42.777477
-42.799342
-42.811141
-42.823390
-42.836660
-42.850290
-42.863899
-42.877328
-42.890519
-42.903462
-42.916167
-42.928648
-42.940924
-42.953011
-42.964924
-42.976678
-42.988284
-42.999755
-43.011100
-43.022329
-43.033448
-43.044466
-43.055390
-43.066224
-43.076974
-43.087646
-43.098245
-43.108773
-43.119235
-43.129635
-43.139976
-43.150262
-43.160495
-43.170678
-43.180813
-43.190901
-43.200936
-43.210899
-43.220695
-42.723391
-42.777477
-42.799342
-42.811141
-42.823390
-42.836660
-42.850290
-42.863899
-42.877328
-42.890519
-42.903462
-42.916167
-42.928648
-42.940924
-42.953011
-42.964924
-42.976678
-42.988284
-42.999755
-43.011100
-43.022329
-43.033448
-43.044466
-43.055390
-43.066224
-43.076974
-43.087647
-43.098245
-43.108773
-43.119235
-43.129635
-43.139976
-43.150262
-43.160495
-43.170678
-43.180813
-43.190901
-43.200936
-43.210899
-43.220695
-42.723385
-42.777282
-42.799117
-42.810987
-42.823295
-42.836596
-42.850244
-42.863864
-42.877299
-42.890494
-42.903441
-42.916148
-42.928632
-42.940910
-42.952998
-42.964912
-42.976667
-42.988275
-42.999746
-43.011092
-43.022321
-43.033441
-43.044460
-43.055384
-43.066218
-43.076969
-43.087642
-43.098240
-43.108769
-43.119231
-43.129632
-43.139973
-43.150259
-43.160492
-43.170675
-43.180811
-43.190899
-43.200935
-43.210899
-43.220700
-42.723378
-42.776893
-42.798670
-42.810684
-42.823104
-42.836469
-42.850152
-42.863793
-42.877241
-42.890446
-42.903399
-42.916112
-42.928600
-42.940880
-42.952972
-42.964888
-42.976645
-42.988255
-42.999728
-43.011076
-43.022306
-43.033427
-43.044447
-43.055372
-43.066207
-43.076959
-43.087633
-43.098232
-43.108761
-43.119224
-43.129625
-43.139967
-43.150253
-43.160487
-43.170670
-43.180807
-43.190896
-43.200933
-43.210900
-43.220711
-42.723370
-42.776315
-42.798011
-42.810236
-42.822823
-42.836281
-42.850015
-42.863687
-42.877155
-42.890373
-42.903337
-42.916057
-42.928551
-42.940837
-42.952933
-42.964853
-42.976613
-42.988226
-42.999702
-43.011051
-43.022284
-43.033407
-43.044428
-43.055355
-43.066191
-43.076945
-43.087619
-43.098219
-43.108749
-43.119213
-43.129615
-43.139958
-43.150245
-43.160479
-43.170664
-43.180800
-43.190890
-43.200929
-43.210901
-43.220726
-42.723365
-42.775554
-42.797152
-42.809656
-42.822458
-42.836036
-42.849837
-42.863548
-42.877042
-42.890278
-42.903255
-42.915985
-42.928488
-42.940781
-42.952882
-42.964807
-42.976572
-42.988188
-42.999667
-43.011020
-43.022255
-43.033380
-43.044404
-43.055332
-43.066171
-43.076926
-43.087602
-43.098203
-43.108735
-43.119200
-43.129602
-43.139946
-43.150234
-43.160469
-43.170654
-43.180792
-43.190883
-43.200925
-43.210902
-43.220746
-42.723367
-42.774619
-42.796110
-42.808955
-42.822017
-42.835739
-42.849620
-42.863379
-42.876904
-42.890162
-42.903155
-42.915898
-42.928410
-42.940711
-42.952820
-42.964751
-42.976521
-42.988142
-42.999625
-43.010982
-43.022220
-43.033349
-43.044375
-43.055305
-43.066146
-43.076903
-43.087581
-43.098184
-43.108717
-43.119184
-43.129588
-43.139932
-43.150221
-43.160458
-43.170644
-43.180783
-43.190876
-43.200919
-43.210903
-43.220769
-42.723379
-42.773520
-42.794908
-42.808150
-42.821508
-42.835395
-42.849367
-42.863182
-42.876743
-42.890026
-42.903038
-42.915796
-42.928320
-42.940631
-42.952748
-42.964687
-42.976463
-42.988089
-42.999578
-43.010938
-43.022180
-43.033313
-43.044342
-43.055275
-43.066119
-43.076878
-43.087558
-43.098163
-43.108697
-43.119166
-43.129571
-43.139917
-43.150207
-43.160445
-43.170632
-43.180772
-43.190867
-43.200914
-43.210905
-43.220794
-42.723409
-42.772273
-42.793570
-42.807260
-42.820944
-42.835011
-42.849085
-42.862961
-42.876562
-42.889874
-42.902907
-42.915682
-42.928220
-42.940542
-42.952669
-42.964616
-42.976399
-42.988032
-42.999525
-43.010891
-43.022137
-43.033273
-43.044306
-43.055243
-43.066089