# vtk DataFile Version 3.0
PAMPI cfd solver output
ASCII
DATASET STRUCTURED_POINTS
DIMENSIONS 40 40 40
ORIGIN 0.012500 0.012500 0.012500
SPACING 0.025000 0.025000 0.025000
POINT_DATA 64000
SCALARS pressure float 1
LOOKUP_TABLE default
-0.039850
-0.040090
-0.040663
-0.041395
-0.042087
-0.042563
-0.042676
-0.042311
-0.041387
-0.039849
-0.037669
-0.034841
-0.031379
-0.027316
-0.022698
-0.017586
-0.012050
-0.006170
-0.000035
0.006261
0.012622
0.018947
0.025137
0.031093
0.036722
0.041936
0.046657
0.050817
0.054363
0.057258
0.059483
0.061045
0.061973
0.062324
0.062186
0.061681
0.060961
0.060210
0.059628
0.059388
-0.039564
-0.039782
-0.040297
-0.040955
-0.041577
-0.041993
-0.042061
-0.041668
-0.040731
-0.039194
-0.037028
-0.034227
-0.030802
-0.026785
-0.022220
-0.017168
-0.011698
-0.005888
0.000173
0.006394
0.012678
0.018926
0.025040
0.030923
0.036482
0.041631
0.046293
0.050401
0.053904
0.056766
0.058971
0.060526
0.061459
0.061831
0.061729
0.061271
0.060606
0.059909
0.059364
0.059132
-0.038949
-0.039174
-0.039660
-0.040266
-0.040828
-0.041189
-0.041211
-0.040787
-0.039836
-0.038302
-0.036156
-0.033390
-0.030015
-0.026061
-0.021571
-0.016603
-0.011225
-0.005514
0.000444
0.006559
0.012735
0.018877
0.024886
0.030669
0.036133
0.041195
0.045779
0.049820
0.053268
0.056088
0.058266
0.059808
0.060744
0.061132
0.061057
0.060634
0.060003
0.059329
0.058788
0.058534
-0.038219
-0.038480
-0.038972
-0.039562
-0.040095
-0.040420
-0.040411
-0.039963
-0.039000
-0.037469
-0.035340
-0.032607
-0.029279
-0.025386
-0.020968
-0.016083
-0.010795
-0.005182
0.000674
0.006684
0.012755
0.018793
0.024702
0.030388
0.035764
0.040745
0.045258
0.049239
0.052638
0.055423
0.057578
0.059109
0.060045
0.060440
0.060377
0.059962
0.059333
0.058646
0.058073
0.057773
-0.037599
-0.037908
-0.038436
-0.039046
-0.039583
-0.039903
-0.039881
-0.039422
-0.038452
-0.036921
-0.034803
-0.032091
-0.028795
-0.024944
-0.020578
-0.015753
-0.010533
-0.004992
0.000789
0.006723
0.012717
0.018681
0.024518
0.030139
0.035455
0.040384
0.044854
0.048800
0.052173
0.054940
0.057084
0.058609
0.059542
0.059934
0.059862
0.059430
0.058767
0.058033
0.057401
0.057042
-0.037284
-0.037647
-0.038231
-0.038891
-0.039462
-0.039802
-0.039789
-0.039330
-0.038356
-0.036822
-0.034702
-0.031992
-0.028704
-0.024866
-0.020519
-0.015717
-0.010523
-0.005011
0.000739
0.006643
0.012609
0.018546
0.024362
0.029966
0.035269
0.040192
0.044659
0.048608
0.051988
0.054763
0.056914
0.058444
0.059376
0.059756
0.059658
0.059182
0.058459
0.057650
0.056941
0.056519
-0.037446
-0.037864
-0.038517
-0.039245
-0.039874
-0.040254
-0.040265
-0.039815
-0.038837
-0.037290
-0.035152
-0.032421
-0.029109
-0.025246
-0.020874
-0.016047
-0.010828
-0.005290
0.000488
0.006421
0.012420
0.018394
0.024250
0.029898
0.035249
0.040221
0.044739
0.048739
0.052166
0.054983
0.057168
0.058719
0.059656
0.060021
0.059885
0.059348
0.058543
0.057640
0.056842
0.056356
-0.038231
-0.038704
-0.039434
-0.040244
-0.040945
-0.041380
-0.041423
-0.040983
-0.039997
-0.038423
-0.036244
-0.033460
-0.030087
-0.026155
-0.021708
-0.016800
-0.011496
-0.005867
0.000006
0.006039
0.012143
0.018225
0.024194
0.029956
0.035423
0.040511
0.045142
0.049248
0.052773
0.055674
0.057925
0.059520
0.060474
0.060828
0.060650
0.060042
0.059142
0.058133
0.057237
0.056685
-0.039771
-0.040300
-0.041111
-0.042011
-0.042794
-0.043289
-0.043367
-0.042933
-0.041925
-0.040304
-0.038056
-0.035183
-0.031704
-0.027653
-0.023073
-0.018022
-0.012565
-0.006775
-0.000732
0.005478
0.011765
0.018036
0.024196
0.030152
0.035813
0.041090
0.045903
0.050180
0.053860
0.056894
0.059252
0.060922
0.061916
0.062271
0.062054
0.061371
0.060369
0.059245
0.058247
0.057627
-0.042189
-0.042775
-0.043671
-0.044666
-0.045534
-0.046090
-0.046197
-0.045758
-0.044708
-0.043014
-0.040662
-0.037657
-0.034023
-0.029794
-0.025020
-0.019757
-0.014074
-0.008045
-0.001752
0.004718
0.011274
0.017819
0.024259
0.030495
0.036432
0.041981
0.047054
0.051574
0.055473
0.058699
0.061213
0.062998
0.064062
0.064438
0.064195
0.063441
0.062334
0.061091
0.059984
0.059293
-0.045604
-0.046250
-0.047234
-0.048327
-0.049279
-0.049891
-0.050016
-0.049552
-0.048436
-0.046633
-0.044135
-0.040949
-0.037102
-0.032634
-0.027596
-0.022047
-0.016059
-0.009709
-0.003079
0.003740
0.010654
0.017567
0.024378
0.030986
0.037293
0.043201
0.048620
0.053463
0.057658
0.061142
0.063872
0.065822
0.066995
0.067421
0.067170
0.066356
0.065148
0.063782
0.062560
0.061793
-0.050135
-0.050846
-0.051924
-0.053114
-0.054146
-0.054804
-0.054928
-0.054415
-0.053198
-0.051246
-0.048551
-0.045128
-0.041006
-0.036228
-0.030850
-0.024937
-0.018560
-0.011800
-0.004743
0.002519
0.009889
0.017267
0.024548
0.031628
0.038403
0.044768
0.050626
0.055884
0.060459
0.064280
0.067294
0.069470
0.070802
0.071317
0.071086
0.070227
0.068924
0.067435
0.066091
0.065239
-0.055909
-0.056691
-0.057866
-0.059154
-0.060260
-0.060947
-0.061048
-0.060451
-0.059093
-0.056941
-0.053993
-0.050267
-0.045798
-0.040635
-0.034836
-0.028471
-0.021615
-0.014352
-0.006771
0.001033
0.008960
0.016906
0.024763
0.032421
0.039769
0.046698
0.053099
0.058872
0.063922
0.068170
0.071551
0.074024
0.075576
0.076230
0.076054
0.075174
0.073786
0.072173
0.070700
0.069754
-0.063059
-0.063920
-0.065198
-0.066583
-0.067752
-0.068449
-0.068495
-0.067775
-0.066223
-0.063812
-0.060544
-0.056442
-0.051548
-0.045914
-0.039606
-0.032697
-0.025267
-0.017403
-0.009196
-0.000746
0.007845
0.016469
0.025013
0.033362
0.041399
0.049006
0.056065
0.062464
0.068099
0.072876
0.076719
0.079575
0.081421
0.082273
0.082199
0.081327
0.079870
0.078134
0.076524
0.075471
-0.071733
-0.072683
-0.074071
-0.075550
-0.076767
-0.077447
-0.077400
-0.076506
-0.074701
-0.071962
-0.068296
-0.063735
-0.058326
-0.052130
-0.045216
-0.037664
-0.029558
-0.020988
-0.012049
-0.002843
0.006524
0.015940
0.025290
0.034451
0.043299
0.051708
0.059550
0.066701
0.073042
0.078467
0.082882
0.086222
0.088451
0.089576
0.089659
0.088835
0.087328
0.085473
0.083717
0.082542
-0.082094
-0.083145
-0.084649
-0.086219
-0.087467
-0.088096
-0.087908
-0.086779
-0.084648
-0.081498
-0.077346
-0.072230
-0.066207
-0.059345
-0.051722
-0.043420
-0.034529
-0.025143
-0.015361
-0.005285
0.004975
0.015304
0.025583
0.035684
0.045475
0.054821
0.063584
0.071625
0.078811
0.085017
0.090133
0.094076
0.096794
0.098281
0.098593
0.097865
0.096336
0.094368
0.092455
0.091141
-0.094325
-0.095492
-0.097119
-0.098773
-0.100027
-0.100564
-0.100175
-0.098736
-0.096192
-0.092535
-0.087792
-0.082013
-0.075265
-0.067624
-0.059176
-0.050010
-0.040220
-0.029904
-0.019161
-0.008096
0.003178
0.014546
0.025883
0.037058
0.047933
0.058363
0.068196
0.077282
0.085467
0.092608
0.098575
0.103261
0.106594
0.108552
0.109179
0.108611
0.107095
0.105025
0.102945
0.101472
-0.108636
-0.109936
-0.111695
-0.113421
-0.114650
-0.115040
-0.114375
-0.112534
-0.109472
-0.105193
-0.099739
-0.093171
-0.085571
-0.077026
-0.067629
-0.057476
-0.046666
-0.035297
-0.023472
-0.011298
0.001116
0.013651
0.026182
0.038573
0.050681
0.062350
0.073419
0.083719
0.093078
0.101330
0.108319
0.113913
0.118013
0.120575
0.121627
0.121296
0.119840
0.117683
0.115427
0.113771
-0.125269
-0.126722
-0.128619
-0.130403
-0.131562
-0.131735
-0.130700
-0.128345
-0.124637
-0.119598
-0.113289
-0.105789
-0.097195
-0.087605
-0.077123
-0.065851
-0.053892
-0.041345
-0.028315
-0.014905
-0.001224
0.012611
0.026473
0.040228
0.053725
0.066802
0.079284
0.090985
0.101715
0.111278
0.119491
0.126187
0.131236
0.134564
0.136173
0.136179
0.134846
0.132627
0.130186
0.128320
-0.144503
-0.146133
-0.148175
-0.149992
-0.151024
-0.150889
-0.149364
-0.146352
-0.141841
-0.135877
-0.128545
-0.119946
-0.110194
-0.099403
-0.087688
-0.075156
-0.061912
-0.048059
-0.033696
-0.018924
-0.003848
0.011419
0.026754
0.042023
0.057072
0.071734
0.085822
0.099132
0.111451
0.122554
0.132222
0.140251
0.146469
0.150760
0.153094
0.153567
0.152438
0.150191
0.147558
0.145450
-0.166668
-0.168505
-0.170695
-0.172509
-0.173335
-0.172771
-0.170603
-0.166756
-0.161248
-0.154159
-0.145602
-0.135709
-0.124614
-0.112449
-0.099337
-0.085394
-0.070726
-0.055433
-0.039610
-0.023351
-0.006754
0.010077
0.027026
0.043961
0.060732
0.077165
0.093063
0.108209
0.122361
0.135264
0.146659
0.156293
0.163943
0.169441
0.172712
0.173814
0.173000
0.170775
0.167948
0.165560
-0.192159
-0.194238
-0.196576
-0.198334
-0.198844
-0.197692
-0.194682
-0.189772
-0.183026
-0.174566
-0.164546
-0.153130
-0.140480
-0.126745
-0.112061
-0.096548
-0.080310
-0.063443
-0.046034
-0.028167
-0.009926
0.008595
0.027294
0.046048
0.064710
0.083106
0.101035
0.118260
0.134517
0.149517
0.162952
0.174514
0.183917
0.190924
0.195397
0.197343
0.196989
0.194859
0.191842
0.189129
-0.221452
-0.223816
-0.226293
-0.227917
-0.227960
-0.226006
-0.221892
-0.215631
-0.207344
-0.197213
-0.185443
-0.172238
-0.157790
-0.142269
-0.125821
-0.108569
-0.090614
-0.072041
-0.052926
-0.033335
-0.013337
0.006994
0.027573
0.048290
0.069012
0.089568
0.109754
0.129323
0.147987
0.165418
0.181258
0.195133
0.206678
0.215570
0.221584
0.224652
0.224956
0.223025
0.219830
0.216741
-0.255133
-0.257834
-0.260429
-0.261802
-0.261167
-0.258121
-0.252560
-0.244574
-0.234367
-0.222197
-0.208331
-0.193024
-0.176502
-0.158955
-0.140539
-0.121373
-0.101553
-0.081148
-0.060214
-0.038797
-0.016941
0.005306
0.027881
0.050698
0.073640
0.096552
0.119230
0.141423
0.162822
0.183062
0.201730
0.218376
0.232538
0.243786
0.251775
0.256333
0.257564
0.255982
0.252638
0.249109
-0.293935
-0.297036
-0.299707
-0.300655
-0.299044
-0.294512
-0.287047
-0.276853
-0.264246
-0.249582
-0.233209
-0.215436
-0.196528
-0.176693
-0.156090
-0.134835
-0.113005
-0.090650
-0.067799
-0.044469
-0.020673
0.003575
0.028244
0.053280
0.078592
0.104046
0.129454
0.154563
0.179053
0.202526
0.224511
0.244472
0.261834
0.276027
0.286554
0.293090
0.295618
0.294603
0.291167
0.287123
-0.338791
-0.342370
-0.345039
-0.345301
-0.342287
-0.335725
-0.325745
-0.312716
-0.297104
-0.279391
-0.260017
-0.239359
-0.217715
-0.195308
-0.172295
-0.148775
-0.124803
-0.100397
-0.075551
-0.050244
-0.024450
0.001859
0.028696
0.056045
0.083855
0.112024
0.140390
0.168717
0.196679
0.223854
0.249716
0.273638
0.294913
0.312799
0.326597
0.335768
0.340110
0.339980
0.336549
0.331902
-0.390914
-0.395065
-0.397591
-0.396769
-0.391741
-0.382390
-0.369076
-0.352395
-0.333015
-0.311573
-0.288620
-0.264597
-0.239833
-0.214556
-0.188908
-0.162960
-0.136731
-0.110196
-0.083304
-0.055988
-0.028169
0.000229
0.029272
0.058997
0.089402
0.120434
0.151973
0.183812
0.215644
0.247035
0.277412
0.306059
0.332120
0.354647
0.372677
0.385377
0.392261
0.393492
0.390236
0.384880
-0.451916
-0.456747
-0.458885
-0.456368
-0.448427
-0.435229
-0.417473
-0.396078
-0.371973
-0.345983
-0.318776
-0.290852
-0.262559
-0.234111
-0.205615
-0.177097
-0.148523
-0.119815
-0.090863
-0.061541
-0.031711
-0.001238
0.030010
0.062131
0.095188
0.129194
0.164088
0.199722
0.235824
0.271978
0.307587
0.341852
0.373766
0.402137
0.425670
0.443125
0.453595
0.456903
0.454115
0.447931
-0.523987
-0.529616
-0.530935
-0.525764
-0.513586
-0.495043
-0.471349
-0.443863
-0.413845
-0.382331
-0.350103
-0.317701
-0.285460
-0.253552
-0.222023
-0.190831
-0.159869
-0.128987
-0.098005
-0.066727
-0.034947
-0.002458
0.030941
0.065427
0.101142
0.138179
0.176567
0.216238
0.256998
0.298481
0.340105
0.381021
0.420078
0.455818
0.486537
0.510449
0.526022
0.532510
0.530693
0.523555
-0.610183
-0.616718
-0.616449
-0.607098
-0.588699
-0.562685
-0.531031
-0.495688
-0.458306
-0.420137
-0.382046
-0.344569
-0.307980
-0.272364
-0.237670
-0.203755
-0.170417
-0.137416
-0.104489
-0.071359
-0.037743
-0.003355
0.032087
0.068846
0.107157
0.147218
0.189169
0.233061
0.278820
0.326187
0.374655
0.423383
0.471122
0.516150
0.556286
0.589033
0.611947
0.623347
0.623379
0.615180
-0.714899
-0.722370
-0.719126
-0.703117
-0.675489
-0.638980
-0.596656
-0.551220
-0.504747
-0.458661
-0.413834
-0.370712
-0.329436
-0.289941
-0.252029
-0.215421
-0.179793
-0.144797
-0.110073
-0.075254
-0.039975
-0.003863
0.033450
0.072321
0.113092
0.156083
0.201575
0.249778
0.300792
0.354539
0.410677
0.468476
0.526684
0.583378
0.635876
0.680791
0.714391
0.733479
0.736926
0.727651
-0.844667
-0.852859
-0.844068
-0.817299
-0.775851
-0.724549
-0.667972
-0.609695
-0.552162
-0.496835
-0.444443
-0.395209
-0.349029
-0.305606
-0.264538
-0.225369
-0.187626
-0.150836
-0.114532
-0.078251
-0.041540
-0.003940
0.035005
0.075753
0.118761
0.164489
0.213383
0.265855
0.322243
0.382739
0.447290
0.515436
0.586102
0.657330
0.726019
0.787769
0.837101
0.868415
0.878145
0.868062
-1.009595
-1.017587
-0.998350
-0.953909
-0.891604
-0.819482
-0.744045
-0.669700
-0.599013
-0.533200
-0.472588
-0.416976
-0.365872
-0.318649
-0.274636
-0.233161
-0.193580
-0.155281
-0.117683
-0.080228
-0.042375
-0.003583
0.036693
0.079009
0.123942
0.172100
0.224117
0.280646
0.342322
0.409716
0.483217
0.562859
0.648037
0.737098
0.826819
0.911862
0.984561
1.035667
1.057076
1.047245
-1.226068
-1.230968
-1.191687
-1.117784
-1.023913
-0.922741
-0.822811
-0.728903
-0.643113
-0.565885
-0.496755
-0.434833
-0.379069
-0.328403
-0.281833
-0.238443
-0.197403
-0.157959
-0.119418
-0.081130
-0.042473
-0.002830
0.038421
0.081928
0.128386
0.178550
0.233254
0.293414
0.360025
0.434132
0.516745
0.608670
0.710204
0.820582
0.937142
1.054166
1.161713
1.245367
1.288909
1.282560
-1.522130
-1.515525
-1.436909
-1.313401
-1.172058
-1.031193
-0.900503
-0.783810
-0.681579
-0.592676
-0.515323
-0.447629
-0.387824
-0.334328
-0.285778
-0.240998
-0.198972
-0.158814
-0.119729
-0.080985
-0.041895
-0.001779
0.040050
0.084319
0.131826
0.183465
0.240262
0.303405
0.374274
0.454464
0.545767
0.650074
0.769124
0.903918
1.053633
1.213677
1.372886
1.510633
1.597079
1.603420
-1.948827
-1.906493
-1.749146
-1.542249
-1.331143
-1.138258
-0.971095
-0.829694
-0.711025
-0.611273
-0.526798
-0.454450
-0.391618
-0.336174
-0.286391
-0.240850
-0.198375
-0.157965
-0.118749
-0.079934
-0.040782
-0.000570
0.041431
0.086009
0.134042
0.186539
0.244693
0.309941
0.384041
0.469161
0.567967
0.683690
0.820048
0.980941
1.169368
1.384935
1.618986
1.846486
2.017734
2.062809
-2.605315
-2.456690
-2.140485
-1.796772
-1.488447
-1.232498
-1.026220
-0.861047
-0.728089
-0.619809
-0.530286
-0.454996
-0.390504
-0.334187
-0.284011
-0.238373
-0.195979
-0.155756
-0.116783
-0.078237
-0.039349
0.000621
0.042426
0.086887
0.134932
0.187646
0.246343
0.312654
0.388647
0.477001
0.581233
0.705984
0.857351
1.043131
1.272528
1.554412
1.891216
2.263980
2.604115
2.762399
-3.696098
-3.232126
-2.601781
-2.048702
-1.619340
-1.297480
-1.056338
-0.873027
-0.730776
-0.617872
-0.526194
-0.450061
-0.385419
-0.329312
-0.279529
-0.234370
-0.192489
-0.152785
-0.114325
-0.076284
-0.037886
0.001604
0.042942
0.086953
0.134583
0.186948
0.245420
0.311734
0.388149
0.477689
0.584505
0.714423
0.875783
1.080655
1.346379
1.696720
2.159527
2.751290
3.420892
3.908826
-5.656826
-4.253558
-3.055235
-2.232942
-1.686353
-1.315689
-1.055106
-0.864721
-0.720531
-0.607753
-0.516967
-0.441943
-0.378406
-0.323319
-0.274449
-0.230102
-0.188947
-0.149900
-0.112046
-0.074575
-0.036736
0.002195
0.042956
0.086361
0.133337
0.184992
0.242689
0.308171
0.383733
0.472502
0.578878
0.709271
0.873367
1.086360
1.372941
1.774184
2.357996
3.227277
4.483899
5.937081
-9.361402
-5.203977
-3.257531
-2.243227
-1.655286
-1.282051
-1.027245
-0.843137
-0.704053
-0.595134
-0.507215
-0.434328
-0.372404
-0.318554
-0.270653
-0.227083
-0.186568
-0.148067
-0.110694
-0.073669
-0.036268
0.002214
0.042496
0.085364
0.131719
0.182627
0.239403
0.303721
0.377784
0.464593
0.568376
0.695336
0.854989
1.062746
1.345216
1.751853
2.382334
3.454491
5.479253
9.711685
-0.039895
-0.040188
-0.040859
-0.041690
-0.042467
-0.043006
-0.043162
-0.042823
-0.041909
-0.040368
-0.038175
-0.035325
-0.031834
-0.027735
-0.023076
-0.017918
-0.012333
-0.006402
-0.000214
0.006138
0.012555
0.018937
0.025183
0.031195
0.036877
0.042142
0.046910
0.051112
0.054694
0.057617
0.059861
0.061432
0.062355
0.062688
0.062516
0.061958
0.061169
0.060338
0.059679
0.059404
-0.039582
-0.039852
-0.040417
-0.041105
-0.041737
-0.042150
-0.042206
-0.041796
-0.040840
-0.039286
-0.037105
-0.034292
-0.030859
-0.026837
-0.022272
-0.017222
-0.011757
-0.005955
0.000098
0.006309
0.012583
0.018822
0.024927
0.030804
0.036360
0.041509
0.046174
0.050291
0.053806
0.056684
0.058910
0.060488
0.061448
0.061846
0.061767
0.061326
0.060668
0.059962
0.059389
0.059122
-0.038913
-0.039253
-0.039802
-0.040426
-0.040974
-0.041303
-0.041287
-0.040824
-0.039837
-0.038274
-0.036107
-0.033328
-0.029950
-0.026001
-0.021524
-0.016576
-0.011224
-0.005545
0.000379
0.006457
0.012596
0.018702
0.024677
0.030429
0.035868
0.040911
0.045484
0.049524
0.052980
0.055818
0.058024
0.059604
0.060588
0.061028
0.061008
0.060636
0.060042
0.059380
0.058807
0.058465
-0.038127
-0.038590
-0.039186
-0.039807
-0.040325
-0.040612
-0.040553
-0.040055
-0.039046
-0.037476
-0.035320
-0.032568
-0.029234
-0.025343
-0.020939
-0.016075
-0.010817
-0.005239
0.000578
0.006546
0.012575
0.018571
0.024441
0.030093
0.035441
0.040402
0.044905
0.048887
0.052299
0.055109
0.057302
0.058883
0.059880
0.060344
0.060351
0.060002
0.059419
0.058740
0.058105
0.057639
-0.037456
-0.038062
-0.038744
-0.039408
-0.039939
-0.040220
-0.040147
-0.039632
-0.038609
-0.037033
-0.034879
-0.032141
-0.028831
-0.024977
-0.020618
-0.015808
-0.010611
-0.005099
0.000648
0.006545
0.012503
0.018430
0.024234
0.029826
0.035121
0.040037
0.044503
0.048458
0.051853
0.054654
0.056845
0.058431
0.059435
0.059905
0.059913
0.059551
0.058935
0.058193
0.057459
0.056850
-0.037100
-0.037852
-0.038642
-0.039382
-0.039959
-0.040264
-0.040198
-0.039680
-0.038648
-0.037061
-0.034899
-0.032156
-0.028845
-0.024994
-0.020644
-0.015848
-0.010668
-0.005175
0.000552
0.006428
0.012367
0.018278
0.024070
0.029655
0.034947
0.039866
0.044340
0.048307
0.051717
0.054536
0.056745
0.058344
0.059355
0.059821
0.059809
0.059406
0.058724
0.057890
0.057035
0.056276
-0.037226
-0.038123
-0.039034
-0.039869
-0.040516
-0.040866
-0.040823
-0.040309
-0.039268
-0.037663
-0.035474
-0.032701
-0.029357
-0.025472
-0.021088
-0.016256
-0.011039
-0.005509
0.000256
0.006174
0.012158
0.018116
0.023960
0.029600
0.034949
0.039928
0.044464
0.048491
0.051959
0.054829
0.057080
0.058709
0.059732
0.060190
0.060145
0.059683
0.058913
0.057965
0.056976
0.056070
-0.037981
-0.039020
-0.040058
-0.041001
-0.041732
-0.042140
-0.042127
-0.041620
-0.040565
-0.038926
-0.036688
-0.033854
-0.030439
-0.026475
-0.022005
-0.017081
-0.011768
-0.006137
-0.000264
0.005765
0.011864
0.017943
0.023910
0.029675
0.035151
0.040256
0.044914
0.049057
0.052631
0.055594
0.057920
0.059601
0.060651
0.061104
0.061022
0.060490
0.059620
0.058546
0.057415
0.056361
-0.039493
-0.040672
-0.041841
-0.042900
-0.043723
-0.044194
-0.044214
-0.043708
-0.042624
-0.040931
-0.038616
-0.035683
-0.032154
-0.028060
-0.023447
-0.018370
-0.012893
-0.007089
-0.001036
0.005181
0.011475
0.017752
0.023922
0.029891
0.035570
0.040874
0.045723
0.050046
0.053784
0.056888
0.059329
0.061094
0.062192
0.062654
0.062539
0.061934
0.060956
0.059748
0.058468
0.057266
-0.041884
-0.043203
-0.044507
-0.045686
-0.046604
-0.047137
-0.047183
-0.046665
-0.045533
-0.043758
-0.041330
-0.038257
-0.034562
-0.030282
-0.025463
-0.020164
-0.014450
-0.008396
-0.002083
0.004405
0.010977
0.017539
0.023997
0.030255
0.036221
0.041804
0.046921
0.051496
0.055462
0.058766
0.061372
0.063260
0.064435
0.064927
0.064791
0.064118
0.063031
0.061683
0.060250
0.058894
-0.045269
-0.046733
-0.048176
-0.049476
-0.050488
-0.051077
-0.051136
-0.050588
-0.049381
-0.047489
-0.044905
-0.041641
-0.037724
-0.033194
-0.028101
-0.022505
-0.016477
-0.010091
-0.003431
0.003415
0.010356
0.017294
0.024132
0.030771
0.037114
0.043065
0.048535
0.053441
0.057710
0.061281
0.064110
0.066172
0.067465
0.068015
0.067879
0.067148
0.065955
0.064465
0.062871
0.061352
-0.049767
-0.051384
-0.052971
-0.054393
-0.055493
-0.056127
-0.056181
-0.055575
-0.054259
-0.052207
-0.049417
-0.045905
-0.041702
-0.036852
-0.031409
-0.025438
-0.019011
-0.012206
-0.005109
0.002190
0.009595
0.017007
0.024324
0.031442
0.038260
0.044676
0.050592
0.055919
0.060575
0.064491
0.067613
0.069908
0.071369
0.072017
0.071907
0.071136
0.069843
0.068210
0.066446
0.064751
-0.055502
-0.057283
-0.059019
-0.060563
-0.061744
-0.062407
-0.062431
-0.061733
-0.060264
-0.058002
-0.054948
-0.051123
-0.046562
-0.041315
-0.035441
-0.029008
-0.022091
-0.014774
-0.007143
0.000707
0.008677
0.016666
0.024566
0.032269
0.039668
0.046653
0.053119
0.058968
0.064106
0.068455
0.071952
0.074553
0.076243
0.077037
0.076991
0.076202
0.074820
0.073042
0.071099
0.069210
-0.062607
-0.064566
-0.066459
-0.068124
-0.069374
-0.070044
-0.070006
-0.069175
-0.067503
-0.064970
-0.061584
-0.057371
-0.052373
-0.046644
-0.040249
-0.033261
-0.025760
-0.017830
-0.009565
-0.001059
0.007584
0.016258
0.024852
0.033254
0.041347
0.049015
0.056145
0.062626
0.068355
0.073240
0.077206
0.080198
0.082190
0.083192
0.083254
0.082479
0.081023
0.079101
0.076966
0.074861
-0.071225
-0.073381
-0.075440
-0.077224
-0.078530
-0.079179
-0.079040
-0.078024
-0.076086
-0.073212
-0.069415
-0.064730
-0.059204
-0.052900
-0.045888
-0.038246
-0.030057
-0.021411
-0.012403
-0.003133
0.006294
0.015769
0.025175
0.034395
0.043305
0.051782
0.059700
0.066938
0.073378
0.078916
0.083461
0.086945
0.089328
0.090611
0.090840
0.090116
0.088607
0.086543
0.084202
0.081854
-0.081519
-0.083894
-0.086130
-0.088029
-0.089371
-0.089966
-0.089675
-0.088412
-0.086134
-0.082836
-0.078538
-0.073284
-0.067131
-0.060148
-0.052413
-0.044008
-0.035023
-0.025550
-0.015688
-0.005539
0.004790
0.015186
0.025528
0.035694
0.045553
0.054972
0.063815
0.071947
0.079237
0.085562
0.090814
0.094907
0.097788
0.099441
0.099906
0.099283
0.097747
0.095546
0.092984
0.090361
-0.093671
-0.096292
-0.098716
-0.100724
-0.102077
-0.102573
-0.102071
-0.100484
-0.097778
-0.093957
-0.089054
-0.083121
-0.076227
-0.068450
-0.059876
-0.050594
-0.040696
-0.030280
-0.019446
-0.008299
0.003054
0.014496
0.025904
0.037151
0.048098
0.058605
0.068523
0.077703
0.085997
0.093261
0.099368
0.104211
0.107714
0.109847
0.110635
0.110175
0.108647
0.106317
0.103517
0.100580
-0.107887
-0.110786
-0.113411
-0.115519
-0.116850
-0.117192
-0.116401
-0.114397
-0.111157
-0.106697
-0.101064
-0.094326
-0.086564
-0.077866
-0.068327
-0.058042
-0.047110
-0.035629
-0.023701
-0.011432
0.001070
0.013688
0.026298
0.038766
0.050952
0.062703
0.073859
0.084257
0.093727
0.102106
0.109240
0.114996
0.119273
0.122017
0.123236
0.123018
0.121544
0.119098
0.116042
0.112747
-0.124404
-0.127621
-0.130460
-0.132653
-0.133919
-0.134035
-0.132860
-0.130324
-0.126419
-0.121180
-0.114673
-0.106984
-0.098209
-0.088448
-0.077807
-0.066387
-0.054290
-0.041617
-0.028470
-0.014952
-0.001172
0.012754
0.026704
0.040542
0.054122
0.067285
0.079859
0.091661
0.102504
0.112197
0.120557
0.127420
0.132652
0.136168
0.137951
0.138074
0.136716
0.134174
0.130844
0.127137
-0.143499
-0.147081
-0.150149
-0.152405
-0.153546
-0.153344
-0.151662
-0.148450
-0.143722
-0.137536
-0.129985
-0.121175
-0.111222
-0.100241
-0.088346
-0.075647
-0.062249
-0.048253
-0.033758
-0.018865
-0.003678
0.011691
0.027123
0.042482
0.057621
0.072373
0.086555
0.099969
0.112402
0.123637
0.133456
0.141654
0.148059
0.152544
0.155059
0.155650
0.154488
0.151882
0.148259
0.144079
-0.165497
-0.169501
-0.172812
-0.175097
-0.176033
-0.175390
-0.173047
-0.168978
-0.163230
-0.155895
-0.147097
-0.136969
-0.125649
-0.113271
-0.099959
-0.085829
-0.070987
-0.055533
-0.039561
-0.023166
-0.006444
0.010501
0.027556
0.044591
0.061457
0.077985
0.093982
0.109233
0.123501
0.136537
0.148083
0.157889
0.165730
0.171428
0.174883
0.176107
0.175249
0.172624
0.168692
0.163962
-0.190784
-0.195282
-0.198847
-0.201112
-0.201734
-0.200489
-0.197282
-0.192127
-0.185115
-0.176383
-0.166095
-0.154419
-0.141519
-0.127546
-0.112638
-0.096914
-0.080481
-0.063433
-0.045857
-0.027836
-0.009456
0.009194
0.028011
0.046873
0.065639
0.084136
0.102167
0.119500
0.135876
0.151009
0.164596
0.176332
0.185927
0.193138
0.197800
0.199868
0.199459
0.196881
0.192627
0.187259
-0.219827
-0.224907
-0.228735
-0.230905
-0.231061
-0.228998
-0.224665
-0.218131
-0.209550
-0.199119
-0.187050
-0.173556
-0.158830
-0.143044
-0.126346
-0.108859
-0.090684
-0.071908
-0.052604
-0.032841
-0.012686
0.007789
0.028499
0.049337
0.070172
0.090837
0.111130
0.130811
0.149594
0.167160
0.183153
0.197202
0.208941
0.218040
0.224246
0.227436
0.227670
0.225238
0.220654
0.214541
-0.253199
-0.258971
-0.263063
-0.265027
-0.264507
-0.261334
-0.255527
-0.247239
-0.236706
-0.224203
-0.210007
-0.194379
-0.177548
-0.159707
-0.141011
-0.121582
-0.101516
-0.080882
-0.059737
-0.038126
-0.016092
0.006315
0.029038
0.051990
0.075058
0.098087
0.120881
0.143190
0.164713
0.185089
0.203911
0.220732
0.235090
0.246546
0.254729
0.259407
0.260552
0.258407
0.253497
0.246508
-0.291615
-0.298220
-0.302560
-0.304153
-0.302658
-0.297979
-0.290239
-0.279709
-0.266742
-0.251710
-0.234971
-0.216842
-0.197591
-0.177427
-0.156514
-0.134965
-0.112860
-0.090249
-0.067161
-0.043612
-0.019616
0.004814
0.029650
0.054838
0.080290
0.105875
0.131408
0.156643
0.181262
0.204876
0.227016
0.247154
0.264714
0.279117
0.289841
0.296494
0.298916
0.297265
0.292056
0.284027
-0.335983
-0.343599
-0.348145
-0.349116
-0.346222
-0.339491
-0.329204
-0.315802
-0.299791
-0.281670
-0.261893
-0.240840
-0.218814
-0.196043
-0.172684
-0.148837
-0.124558
-0.099865
-0.074753
-0.049201
-0.023180
0.003335
0.030361
0.057884
0.085853
0.114169
0.142676
0.171139
0.199241
0.226564
0.252588
0.276690
0.298166
0.316265
0.330262
0.339547
0.343759
0.342910
0.337459
0.328192
-0.387481
-0.396337
-0.400998
-0.400963
-0.396059
-0.386516
-0.372859
-0.355764
-0.335942
-0.314049
-0.290648
-0.266187
-0.241001
-0.215319
-0.189287
-0.162976
-0.136404
-0.109549
-0.082359
-0.054766
-0.026692
0.001940
0.031200
0.061124
0.091712
0.122914
0.154612
0.186607
0.218593
0.250144
0.280693
0.309529
0.335797
0.358543
0.376775
0.389585
0.396312
0.396724
0.391154
0.380398
-0.447670
-0.458058
-0.462652
-0.461019
-0.453212
-0.439795
-0.421656
-0.399802
-0.375206
-0.348715
-0.321011
-0.292603
-0.263841
-0.234944
-0.206021
-0.177100
-0.148146
-0.119080
-0.089794
-0.060160
-0.030043
0.000697
0.032192
0.064543
0.097814
0.132017
0.167098
0.202911
0.239191
0.275525
0.311323
0.345792
0.377926
0.406525
0.430266
0.447829
0.458110
0.460481
0.455020
0.442462
-0.518666
-0.530956
-0.535138
-0.530975
-0.518945
-0.500156
-0.476033
-0.448037
-0.417472
-0.385402
-0.352622
-0.319681
-0.286919
-0.254513
-0.222511
-0.190869
-0.159484
-0.128204
-0.096849
-0.065221
-0.033116
-0.000324
0.033360
0.068112
0.104075
0.141347
0.179956
0.219841
0.260810
0.302503
0.344344
0.385488
0.424786
0.460772
0.491711
0.515731
0.531080
0.536489
0.531554
0.516809
-0.603419
-0.618067
-0.621188
-0.613006
-0.594776
-0.568485
-0.536352
-0.500437
-0.462444
-0.423653
-0.384945
-0.346866
-0.309697
-0.273527
-0.238306
-0.203892
-0.170084
-0.136640
-0.103296
-0.069774
-0.035791
-0.001059
0.034710
0.071778
0.110381
0.150720
0.192936
0.237086
0.283098
0.330718
0.379443
0.428437
0.476451
0.521755
0.562134
0.594994
0.617644
0.627792
0.624149
0.606754
-0.706160
-0.723692
-0.724528
-0.709897
-0.682472
-0.645651
-0.602786
-0.556705
-0.509542
-0.462755
-0.417233
-0.373436
-0.331510
-0.291396
-0.252897
-0.215734
-0.179583
-0.144094
-0.108905
-0.073649
-0.037956
-0.001454
0.036233
0.075461
0.116574
0.159896
0.205708
0.254224
0.305549
0.359607
0.416059
0.474180
0.532716
0.589733
0.642513
0.687556
0.720850
0.738472
0.737536
0.716976
-0.833184
-0.854091
-0.850293
-0.825180
-0.783982
-0.732329
-0.675133
-0.616117
-0.557793
-0.501665
-0.448483
-0.398483
-0.351570
-0.307453
-0.265729
-0.225942
-0.187619
-0.150282
-0.113461
-0.076693
-0.039519
-0.001479
0.037891
0.079050
0.122457
0.168575
0.217854
0.270709
0.327479
0.388361
0.453304
0.521851
0.592922
0.664548
0.733579
0.795492
0.844472
0.874058
0.878491
0.854335
-0.994257
-1.018620
-1.005600
-0.963182
-0.901193
-0.828667
-0.752506
-0.677295
-0.605685
-0.538941
-0.477417
-0.420931
-0.368995
-0.320988
-0.276240
-0.234081
-0.193857
-0.154953
-0.116785
-0.078791
-0.040425
-0.001139
0.039616
0.082400
0.127792
0.176405
0.228883
0.285875
0.348020
0.415893
0.489888
0.570035
0.655726
0.745292
0.835451
0.920718
0.993029
1.042081
1.057007
1.029341
-1.205330
-1.231637
-1.200200
-1.128806
-1.035331
-0.933674
-0.832869
-0.737918
-0.651024
-0.572700
-0.502500
-0.439575
-0.382871
-0.331324
-0.283940
-0.239790
-0.198040
-0.157932
-0.118766
-0.079885
-0.040664
-0.000474
0.041310
0.085344
0.132327
0.183018
0.238253
0.298967
0.366136
0.440834
0.524066
0.616626
0.718815
0.829841
0.946978
1.064328
1.171469
1.252686
1.288234
1.258990
-1.494077
-1.515612
-1.446922
-1.326533
-1.185671
-1.044190
-0.912403
-0.794427
-0.690844
-0.600661
-0.522061
-0.453221
-0.392348
-0.337869
-0.288415
-0.242802
-0.200006
-0.159131
-0.119374
-0.079994
-0.040296
0.000413
0.042823
0.087670
0.135760
0.187995
0.245406
0.309191
0.380731
0.461620
0.553672
0.658742
0.778625
0.914234
1.064700
1.225214
1.384042
1.518951
1.595603
1.572531
-1.911870
-1.905736
-1.760664
-1.557581
-1.347023
-1.153354
-0.984779
-0.841861
-0.721580
-0.620309
-0.534412
-0.460764
-0.396752
-0.340240
-0.289488
-0.243064
-0.199779
-0.158621
-0.118707
-0.079232
-0.039447
0.001383
0.043993
0.089181
0.137837
0.190978
0.249807
0.315770
0.390634
0.476572
0.576256
0.692890
0.830230
0.992019
1.181367
1.397509
1.631237
1.855609
2.015363
2.023819
-2.560600
-2.454385
-2.152189
-1.813052
-1.505397
-1.248763
-1.040902
-0.873955
-0.739207
-0.629253
-0.538209
-0.461557
-0.395851
-0.338450
-0.287304
-0.240792
-0.197604
-0.156651
-0.117000
-0.077816
-0.038315
0.002257
0.044655
0.089713
0.138373
0.191730
0.251110
0.318152
0.394938
0.484155
0.589318
0.715058
0.867443
1.054164
1.284362
1.566434
1.902799
2.272353
2.600735
2.718505
-3.652261
-3.223687
-2.606414
-2.059830
-1.632635
-1.310891
-1.068763
-0.884052
-0.740313
-0.625986
-0.533009
-0.455713
-0.390039
-0.333015
-0.282415
-0.236522
-0.193977
-0.153666
-0.114642
-0.076070
-0.037163
0.002827
0.044654
0.089159
0.137297
0.190194
0.249229
0.316145
0.393207
0.483441
0.590985
0.721630
0.883638
1.088915
1.354532
1.703822
2.164364
2.751778
3.413707
3.873042
-5.625734
-4.211351
-3.024984
-2.216661
-1.679628
-1.314389
-1.056531
-0.867340
-0.723530
-0.610715